version 3
run General-0-20240508-11:20:26-64532
attr configname General
attr datetime 20240508-11:20:26
attr datetimef 20240508-112026
attr experiment General
attr inifile omnetpp.ini
attr iterationvars ""
attr iterationvarsd ""
attr iterationvarsf ""
attr measurement ""
attr network Network
attr processid 64532
attr repetition 0
attr replication #0
attr resultdir results
attr runnumber 0
attr seedset 0
config network Network
config sim-time-limit 200s
config Network.nodeTx.gen.generationInterval exponential(0.1)
config Network.nodeTx.gen.packetByteSize 12500
config Network.nodeTx.queue.serviceTime exponential(0.1)
config Network.nodeTx.queue.bufferSize 2000000
config Network.nodeRx.queue.serviceTime exponential(0.1)
config Network.nodeRx.queue.bufferSize 200
config Network.queue.bufferSize 200
config Network.queue.serviceTime exponential(0.1)

vector 0 Network.nodeTx.queue "" ETV
vector 1 Network.queue "" ETV
vector 2 Network.nodeRx.queue "" ETV
vector 3 Network.nodeRx.sink Delay ETV
0	2	0.079587450457	1
0	5	0.169443489305	1
0	15	0.29503656511	1
0	25	0.480996986317	1
0	30	0.573319299464	1
0	41	0.768473833052	1
0	46	0.84719394705	1
0	57	1.03509035247	1
0	64	1.090195201137	1
0	69	1.187895843776	1
0	77	1.291711773842	1
0	83	1.340224590214	1
0	85	1.397776509902	2
0	87	1.433092423816	3
0	103	1.65544486602	1
0	105	1.661283332929	2
0	123	1.992774560922	1
0	126	2.024610175006	1
0	130	2.072970385501	2
0	137	2.137915020326	2
0	149	2.294804632088	1
0	155	2.46202575212	1
0	163	2.537293163451	1
0	169	2.602681420173	1
0	173	2.686624705463	2
0	179	2.736511906365	2
0	195	2.99633731495	1
0	205	3.177174241377	1
0	208	3.184542776924	1
0	212	3.225700576548	2
0	214	3.23481667916	3
0	221	3.339277929991	3
0	223	3.341320488831	4
0	229	3.387245302557	4
0	237	3.565994068901	4
0	259	3.881011061769	1
0	265	4.031589487633	1
0	267	4.046712572999	2
0	279	4.250743998793	1
0	291	4.454833220384	1
0	305	4.839355407298	1
0	310	4.903526324566	1
0	319	5.064050280272	1
0	329	5.225450487761	1
0	336	5.287343433724	1
0	341	5.360839875843	1
0	349	5.512493473242	1
0	359	5.626087367413	1
0	362	5.638674808357	1
0	371	5.766197578579	1
0	377	5.868340766014	1
0	385	5.955572885518	1
0	387	5.971045853568	2
0	393	6.048129319415	2
0	411	6.337571367214	1
0	419	6.479707835223	1
0	426	6.553490564399	1
0	428	6.564685180462	2
0	433	6.618241752485	2
0	441	6.682411222688	2
0	443	6.713139257903	3
0	445	6.733759586106	4
0	457	6.882585068681	3
0	463	7.016114087143	3
0	465	7.077022329461	4
0	473	7.101427178535	4
0	479	7.185460649096	4
0	481	7.199988451825	5
0	483	7.201885308745	6
0	485	7.241062389813	7
0	493	7.33720048372	7
0	495	7.353414132665	8
0	501	7.448113800382	8
0	503	7.473257993589	9
0	511	7.569212791326	9
0	517	7.618068496257	9
0	535	7.905859998385	7
0	547	8.138751335806	6
0	553	8.253265231276	6
0	561	8.313039838958	6
0	563	8.357591688463	7
0	569	8.452541146813	7
0	577	8.509994387487	7
0	589	8.742629493656	6
0	595	8.862240273602	6
0	597	8.87269639618	7
0	599	8.878907925227	8
0	621	9.228929293672	5
0	629	9.338820540427	5
0	635	9.444703953576	5
0	643	9.555763698145	5
0	645	9.574506304747	6
0	651	9.598126975355	6
0	653	9.642467378217	7
0	655	9.65627024706	8
1	7	0.179687450457	1
1	10	0.279687450457	1
1	20	0.39513656511	1
1	32	0.581096986317	1
1	37	0.681096986317	1
1	48	0.868573833052	1
1	53	0.968573833052	1
1	66	1.13519035247	1
1	71	1.23519035247	1
1	79	1.33519035247	1
1	89	1.43519035247	1
1	95	1.53519035247	1
1	99	1.63519035247	1
1	109	1.73519035247	1
1	113	1.83519035247	1
1	119	1.93519035247	1
1	134	2.092874560922	1
1	139	2.192874560922	1
1	145	2.292874560922	1
1	151	2.392874560922	1
1	159	2.492874560922	1
1	165	2.592874560922	1
1	175	2.692874560922	1
1	181	2.792874560922	1
1	187	2.892874560922	1
1	191	2.992874560922	1
1	202	3.09643731495	1
1	216	3.277274241377	1
1	225	3.377274241377	1
1	231	3.477274241377	1
1	239	3.577274241377	1
1	243	3.677274241377	1
1	249	3.777274241377	1
1	253	3.877274241377	1
1	261	3.977274241377	1
1	269	4.077274241377	1
1	275	4.177274241377	1
1	281	4.277274241377	1
1	287	4.377274241377	1
1	298	4.554933220384	1
1	312	4.939455407298	1
1	315	5.039455407298	1
1	326	5.164150280272	1
1	338	5.325550487761	1
1	343	5.425550487761	1
1	351	5.525550487761	1
1	355	5.625550487761	1
1	368	5.726187367413	1
1	373	5.826187367413	1
1	381	5.926187367413	1
1	389	6.026187367413	1
1	397	6.126187367413	1
1	401	6.226187367413	1
1	407	6.326187367413	1
1	416	6.437671367214	1
1	430	6.579807835223	1
1	437	6.679807835223	1
1	447	6.779807835223	1
1	453	6.879807835223	1
1	459	6.979807835223	1
1	469	7.079807835223	1
1	475	7.179807835223	1
1	489	7.279807835223	1
1	497	7.379807835223	1
1	507	7.479807835223	1
1	513	7.579807835223	1
1	521	7.679807835223	1
1	525	7.779807835223	1
1	531	7.879807835223	1
1	537	7.979807835223	1
1	543	8.079807835223	1
1	549	8.179807835223	1
1	557	8.279807835223	1
1	565	8.379807835223	1
1	573	8.479807835223	1
1	579	8.579807835223	1
1	585	8.679807835223	1
1	591	8.779807835223	1
1	603	8.879807835223	1
1	607	8.979807835223	1
1	613	9.079807835223	1
1	617	9.179807835223	1
1	625	9.279807835223	1
1	631	9.379807835223	1
1	639	9.479807835223	1
1	647	9.579807835223	1
2	12	0.279787450457	1
2	18	0.379787450457	1
2	28	0.49523656511	1
2	39	0.681196986317	1
2	44	0.781196986317	2
2	55	0.968673833052	2
2	60	1.068673833052	3
2	73	1.23529035247	3
2	81	1.33529035247	3
2	91	1.43529035247	4
2	97	1.53529035247	4
2	101	1.63529035247	5
2	111	1.73529035247	5
2	115	1.83529035247	6
2	121	1.93529035247	6
2	128	2.03529035247	7
2	141	2.192974560922	7
2	147	2.292974560922	7
2	153	2.392974560922	8
2	161	2.492974560922	8
2	167	2.592974560922	9
2	177	2.692974560922	9
2	183	2.792974560922	10
2	189	2.892974560922	10
2	193	2.992974560922	11
2	200	3.092974560922	11
2	210	3.19653731495	12
2	227	3.377374241377	12
2	233	3.477374241377	13
2	241	3.577374241377	13
2	245	3.677374241377	14
2	251	3.777374241377	14
2	255	3.877374241377	15
2	263	3.977374241377	15
2	271	4.077374241377	16
2	277	4.177374241377	16
2	283	4.277374241377	17
2	289	4.377374241377	17
2	294	4.477374241377	18
2	301	4.655033220384	18
2	317	5.039555407298	17
2	324	5.139555407298	17
2	332	5.264250280272	18
2	345	5.425650487761	18
2	353	5.525650487761	18
2	357	5.625650487761	19
2	366	5.725650487761	19
2	375	5.826287367413	20
2	383	5.926287367413	20
2	391	6.026287367413	21
2	399	6.126287367413	21
2	403	6.226287367413	22
2	409	6.326287367413	22
2	414	6.426287367413	23
2	424	6.537771367214	23
2	439	6.679907835223	23
2	449	6.779907835223	24
2	455	6.879907835223	24
2	461	6.979907835223	25
2	471	7.079907835223	25
2	477	7.179907835223	26
2	491	7.279907835223	26
2	499	7.379907835223	27
2	509	7.479907835223	27
2	515	7.579907835223	28
2	523	7.679907835223	28
2	527	7.779907835223	29
2	533	7.879907835223	29
2	539	7.979907835223	30
2	545	8.079907835223	30
2	551	8.179907835223	31
2	559	8.279907835223	31
2	567	8.379907835223	32
2	575	8.479907835223	32
2	581	8.579907835223	33
2	587	8.679907835223	33
2	593	8.779907835223	34
2	605	8.879907835223	34
2	609	8.979907835223	35
2	615	9.079907835223	35
2	619	9.179907835223	36
2	627	9.279907835223	36
2	633	9.379907835223	37
2	641	9.479907835223	37
2	649	9.579907835223	38
3	22	0.479787450457	0.4002
3	34	0.679787450457	0.510343961152
3	50	0.879787450457	0.584750885347
3	61	1.079787450457	0.59879046414
3	74	1.279787450457	0.706468150993
3	92	1.479787450457	0.711313617405
3	106	1.679787450457	0.832593503407
3	116	1.879787450457	0.844697097987
3	131	2.079787450457	0.98959224932
3	142	2.279787450457	1.091891606681
3	156	2.479787450457	1.188075676615
3	170	2.679787450457	1.339562860243
3	184	2.879787450457	1.482010940555
3	197	3.079787450457	1.646695026641
3	218	3.279787450457	1.624342584437
3	234	3.479787450457	1.818504117528
3	246	3.679787450457	1.687012889535
3	256	3.879787450457	1.855177275451
3	272	4.079787450457	2.006817064956
3	284	4.279787450457	2.141872430131
3	295	4.479787450457	2.184982818369
3	302	4.679787450457	2.217761698337
3	307	4.879787450457	2.342494287006
3	321	5.079787450457	2.477106030284
3	333	5.279787450457	2.593162744994
3	346	5.479787450457	2.743275544092
3	363	5.679787450457	2.683450135507
3	378	5.879787450457	2.70261320908
3	394	6.079787450457	2.895244673533
3	404	6.279787450457	3.054086873909
3	421	6.479787450457	3.244970771297
3	435	6.679787450457	3.340509520466
3	451	6.879787450457	3.538466961626
3	467	7.079787450457	3.6925421479
3	487	7.279787450457	3.713793381556
3	505	7.479787450457	3.598776388688
3	519	7.679787450457	3.648197962824
3	529	7.879787450457	3.833074877458
3	541	8.079787450457	3.829043451664
3	555	8.279787450457	3.824954230073
3	571	8.479787450457	3.640432043159
3	583	8.679787450457	3.776261125891
3	601	8.879787450457	3.815737170185
3	611	9.079787450457	3.854336962696
3	623	9.279787450457	3.992444016733
3	637	9.479787450457	4.118947574614

